[Molden Format]
[Title]
Written by TeraChem
[Atoms] Angs
Cr   1   14     -0.05999    0.00002    0.00000
F   2   9      1.88205    0.00001    0.00002
F   3   9     -0.06001    1.94205   -0.00000
F   4   9     -2.00195   -0.00001   -0.00001
F   5   9     -0.06000   -1.94203    0.00001
F   6   9     -0.06002    0.00001    1.94185
F   7   9     -0.06000   -0.00001   -1.94183
[GTO]
    1 0
 s    3 1.00
            5.361000            -0.380569
            1.449000             0.779562
            0.549600             0.473078
 s    4 1.00
            5.361000             0.220311
            1.449000            -0.542339
            0.549600            -0.604772
            0.105200             1.113666
 s    1 1.00
            0.036400             1.000000
 p    3 1.00
           16.420000            -0.046140
            1.914000             0.610996
            0.624100             0.485963
 p    1 1.00
            0.063000             1.000000
 p    1 1.00
            0.019000             1.000000
 d    4 1.00
           28.950000             0.033779
            7.708000             0.178035
            2.495000             0.437001
            0.765500             0.594180
 d    1 1.00
            0.188900             1.000000

    2 0
 s    6 1.00
         7001.713090             0.001820
         1051.366090             0.013916
          239.285690             0.068405
           67.397445             0.233186
           21.519957             0.471267
            7.403101             0.356619
 s    3 1.00
           20.847953            -0.108507
            4.808308            -0.146452
            1.344070             1.128689
 s    1 1.00
            0.358151             1.000000
 p    3 1.00
           20.847953             0.071629
            4.808308             0.345912
            1.344070             0.722470
 p    1 1.00
            0.358151             1.000000
 d    1 1.00
            0.800000             1.000000

    3 0
 s    6 1.00
         7001.713090             0.001820
         1051.366090             0.013916
          239.285690             0.068405
           67.397445             0.233186
           21.519957             0.471267
            7.403101             0.356619
 s    3 1.00
           20.847953            -0.108507
            4.808308            -0.146452
            1.344070             1.128689
 s    1 1.00
            0.358151             1.000000
 p    3 1.00
           20.847953             0.071629
            4.808308             0.345912
            1.344070             0.722470
 p    1 1.00
            0.358151             1.000000
 d    1 1.00
            0.800000             1.000000

    4 0
 s    6 1.00
         7001.713090             0.001820
         1051.366090             0.013916
          239.285690             0.068405
           67.397445             0.233186
           21.519957             0.471267
            7.403101             0.356619
 s    3 1.00
           20.847953            -0.108507
            4.808308            -0.146452
            1.344070             1.128689
 s    1 1.00
            0.358151             1.000000
 p    3 1.00
           20.847953             0.071629
            4.808308             0.345912
            1.344070             0.722470
 p    1 1.00
            0.358151             1.000000
 d    1 1.00
            0.800000             1.000000

    5 0
 s    6 1.00
         7001.713090             0.001820
         1051.366090             0.013916
          239.285690             0.068405
           67.397445             0.233186
           21.519957             0.471267
            7.403101             0.356619
 s    3 1.00
           20.847953            -0.108507
            4.808308            -0.146452
            1.344070             1.128689
 s    1 1.00
            0.358151             1.000000
 p    3 1.00
           20.847953             0.071629
            4.808308             0.345912
            1.344070             0.722470
 p    1 1.00
            0.358151             1.000000
 d    1 1.00
            0.800000             1.000000

    6 0
 s    6 1.00
         7001.713090             0.001820
         1051.366090             0.013916
          239.285690             0.068405
           67.397445             0.233186
           21.519957             0.471267
            7.403101             0.356619
 s    3 1.00
           20.847953            -0.108507
            4.808308            -0.146452
            1.344070             1.128689
 s    1 1.00
            0.358151             1.000000
 p    3 1.00
           20.847953             0.071629
            4.808308             0.345912
            1.344070             0.722470
 p    1 1.00
            0.358151             1.000000
 d    1 1.00
            0.800000             1.000000

    7 0
 s    6 1.00
         7001.713090             0.001820
         1051.366090             0.013916
          239.285690             0.068405
           67.397445             0.233186
           21.519957             0.471267
            7.403101             0.356619
 s    3 1.00
           20.847953            -0.108507
            4.808308            -0.146452
            1.344070             1.128689
 s    1 1.00
            0.358151             1.000000
 p    3 1.00
           20.847953             0.071629
            4.808308             0.345912
            1.344070             0.722470
 p    1 1.00
            0.358151             1.000000
 d    1 1.00
            0.800000             1.000000

[MO]
 Sym= Cs
 Ene=   -24.2687
 Spin= Alpha
 Occup= 1.0
    1    0.00001
    2    0.00000
    3    0.00004
    4    0.00000
    5    0.00000
    6   -0.00020
    7    0.00000
    8    0.00000
    9   -0.00158
   10   -0.00000
   11   -0.00000
   12    0.00021
   13   -0.00000
   14   -0.00000
   15    0.00000
   16    0.00000
   17    0.00000
   18   -0.00000
   19    0.00002
   20    0.00002
   21    0.00003
   22    0.00000
   23    0.00000
   24    0.00000
   25    0.00096
   26    0.00004
   27   -0.00004
   28    0.00000
   29    0.00000
   30   -0.00001
   31    0.00001
   32   -0.00000
   33    0.00012
   34    0.00000
   35    0.00000
   36    0.00000
   37   -0.00000
   38    0.00002
   39    0.00000
   40    0.00102
   41    0.00004
   42   -0.00004
   43    0.00000
   44    0.00000
   45   -0.00001
   46   -0.00000
   47    0.00001
   48    0.00012
   49    0.00000
   50    0.00000
   51    0.00000
   52   -0.00000
   53    0.00000
   54    0.00002
   55    0.00111
   56    0.00004
   57   -0.00004
   58   -0.00000
   59    0.00000
   60   -0.00001
   61   -0.00001
   62   -0.00000
   63    0.00012
   64    0.00000
   65   -0.00000
   66    0.00000
   67    0.00000
   68   -0.00002
   69    0.00000
   70    0.00124
   71    0.00004
   72   -0.00004
   73    0.00000
   74   -0.00000
   75   -0.00001
   76   -0.00000
   77   -0.00001
   78    0.00012
   79   -0.00000
   80   -0.00000
   81    0.00000
   82    0.00000
   83    0.00000
   84   -0.00002
   85    0.65407
   86    0.01230
   87    0.01178
   88    0.00000
   89    0.00000
   90   -0.00006
   91   -0.00000
   92   -0.00000
   93   -0.00014
   94   -0.00573
   95   -0.00573
   96   -0.00575
   97    0.00000
   98   -0.00000
   99   -0.00000
  100   -0.74697
  101   -0.01409
  102   -0.01331
  103   -0.00000
  104    0.00000
  105   -0.00006
  106   -0.00000
  107   -0.00000
  108   -0.00018
  109    0.00651
  110    0.00651
  111    0.00652
  112   -0.00000
  113    0.00000
  114    0.00000
 Sym= Cs
 Ene=   -24.2687
 Spin= Alpha
 Occup= 1.0
    1   -0.00013
    2   -0.00003
    3   -0.00063
    4   -0.00000
    5   -0.00000
    6   -0.00001
    7   -0.00000
    8   -0.00001
    9   -0.00011
   10    0.00000
   11    0.00000
   12    0.00001
   13    0.00001
   14    0.00001
   15   -0.00005
   16   -0.00000
   17    0.00000
   18   -0.00000
   19   -0.00035
   20   -0.00035
   21   -0.00045
   22   -0.00000
   23    0.00000
   24    0.00000
   25   -0.01780
   26   -0.00059
   27    0.00057
   28   -0.00000
   29   -0.00000
   30   -0.00000
   31   -0.00009
   32    0.00000
   33    0.00001
   34   -0.00001
   35    0.00001
   36   -0.00004
   37    0.00000
   38    0.00000
   39   -0.00000
   40   -0.01900
   41   -0.00062
   42    0.00055
   43   -0.00000
   44   -0.00000
   45   -0.00000
   46    0.00000
   47   -0.00009
   48    0.00001
   49    0.00002
   50    0.00000
   51   -0.00003
   52    0.00000
   53    0.00000
   54    0.00000
   55   -0.02152
   56   -0.00066
   57    0.00050
   58    0.00000
   59   -0.00000
   60   -0.00000
   61    0.00009
   62    0.00000
   63    0.00001
   64    0.00003
   65    0.00005
   66   -0.00001
   67   -0.00000
   68   -0.00000
   69   -0.00000
   70   -0.02496
   71   -0.00073
   72    0.00044
   73   -0.00000
   74    0.00000
   75   -0.00000
   76    0.00000
   77    0.00009
   78    0.00001
   79    0.00008
   80    0.00006
   81    0.00002
   82   -0.00000
   83    0.00000
   84   -0.00000
   85    0.74643
   86    0.01435
   87    0.01235
   88   -0.00000
   89   -0.00000
   90   -0.00003
   91    0.00000
   92    0.00000
   93   -0.00030
   94   -0.00629
   95   -0.00629
   96   -0.00624
   97    0.00000
   98    0.00000
   99    0.00000
  100    0.65349
  101    0.01260
  102    0.01069
  103   -0.00000
  104   -0.00000
  105    0.00002
  106    0.00000
  107    0.00000
  108    0.00028
  109   -0.00547
  110   -0.00547
  111   -0.00543
  112    0.00000
  113   -0.00000
  114   -0.00000
 Sym= Cs
 Ene=   -24.2686
 Spin= Alpha
 Occup= 1.0
    1    0.00004
    2    0.00001
    3    0.00019
    4    0.00000
    5   -0.00019
    6    0.00000
    7    0.00002
    8   -0.00152
    9    0.00000
   10   -0.00000
   11    0.00020
   12   -0.00000
   13   -0.00000
   14    0.00001
   15   -0.00000
   16    0.00000
   17    0.00000
   18    0.00000
   19    0.00010
   20    0.00013
   21    0.00011
   22   -0.00000
   23   -0.00000
   24   -0.00000
   25    0.00760
   26    0.00023
   27   -0.00016
   28    0.00000
   29   -0.00001
   30    0.00000
   31    0.00003
   32    0.00011
   33   -0.00000
   34   -0.00001
   35   -0.00000
   36   -0.00002
   37    0.00002
   38   -0.00000
   39    0.00000
   40    0.46870
   41    0.00874
   42    0.00868
   43    0.00000
   44   -0.00005
   45    0.00000
   46   -0.00000
   47   -0.00007
   48   -0.00000
   49   -0.00416
   50   -0.00419
   51   -0.00416
   52   -0.00000
   53    0.00000
   54   -0.00000
   55    0.02753
   56    0.00060
   57    0.00020
   58    0.00000
   59   -0.00001
   60    0.00000
   61   -0.00002
   62    0.00011
   63   -0.00000
   64   -0.00019
   65   -0.00018
   66   -0.00019
   67   -0.00002
   68    0.00000
   69   -0.00000
   70   -0.87473
   71   -0.01656
   72   -0.01537
   73    0.00000
   74   -0.00006
   75    0.00000
   76   -0.00000
   77   -0.00024
   78   -0.00000
   79    0.00757
   80    0.00757
   81    0.00757
   82    0.00000
   83    0.00000
   84    0.00000
   85   -0.00886
   86   -0.00010
   87   -0.00038
   88    0.00000
   89   -0.00001
   90    0.00000
   91   -0.00000
   92    0.00011
   93    0.00003
   94    0.00011
   95    0.00013
   96    0.00012
   97    0.00000
   98   -0.00000
   99    0.00002
  100   -0.00851
  101   -0.00010
  102   -0.00037
  103    0.00000
  104   -0.00001
  105   -0.00000
  106   -0.00000
  107    0.00011
  108   -0.00003
  109    0.00011
  110    0.00012
  111    0.00011
  112    0.00000
  113    0.00000
  114   -0.00002
 Sym= Cs
 Ene=   -24.2686
 Spin= Alpha
 Occup= 1.0
    1    0.00003
    2    0.00001
    3    0.00015
    4   -0.00019
    5   -0.00001
    6    0.00000
    7   -0.00154
    8   -0.00005
    9    0.00000
   10    0.00021
   11    0.00001
   12   -0.00000
   13    0.00001
   14   -0.00000
   15   -0.00000
   16    0.00000
   17    0.00000
   18   -0.00000
   19    0.00011
   20    0.00008
   21    0.00009
   22    0.00000
   23   -0.00000
   24    0.00000
   25    0.51047
   26    0.00954
   27    0.00939
   28   -0.00005
   29   -0.00000
   30    0.00000
   31   -0.00009
   32    0.00000
   33   -0.00000
   34   -0.00454
   35   -0.00452
   36   -0.00452
   37    0.00000
   38   -0.00000
   39    0.00000
   40    0.03796
   41    0.00079
   42    0.00043
   43   -0.00001
   44   -0.00000
   45    0.00000
   46    0.00012
   47    0.00001
   48   -0.00000
   49   -0.00028
   50   -0.00029
   51   -0.00029
   52    0.00002
   53    0.00000
   54   -0.00000
   55   -0.85070
   56   -0.01609
   57   -0.01498
   58   -0.00006
   59   -0.00000
   60    0.00000
   61   -0.00023
   62    0.00000
   63   -0.00000
   64    0.00738
   65    0.00737
   66    0.00737
   67   -0.00000
   68    0.00000
   69    0.00000
   70   -0.00186
   71    0.00004
   72   -0.00028
   73   -0.00001
   74   -0.00000
   75    0.00000
   76    0.00012
   77   -0.00002
   78   -0.00000
   79    0.00007
   80    0.00006
   81    0.00006
   82   -0.00002
   83    0.00000
   84    0.00000
   85   -0.00619
   86   -0.00006
   87   -0.00029
   88   -0.00001
   89   -0.00000
   90    0.00000
   91    0.00012
   92    0.00000
   93    0.00003
   94    0.00010
   95    0.00008
   96    0.00009
   97    0.00000
   98    0.00002
   99    0.00000
  100   -0.00597
  101   -0.00006
  102   -0.00029
  103   -0.00001
  104   -0.00000
  105   -0.00000
  106    0.00012
  107    0.00000
  108   -0.00003
  109    0.00009
  110    0.00008
  111    0.00008
  112    0.00000
  113   -0.00002
  114   -0.00000
 Sym= Cs
 Ene=   -24.2686
 Spin= Alpha
 Occup= 1.0
    1   -0.00009
    2   -0.00002
    3   -0.00046
    4    0.00002
    5   -0.00006
    6   -0.00000
    7    0.00016
    8   -0.00045
    9   -0.00000
   10   -0.00002
   11    0.00006
   12    0.00000
   13    0.00002
   14   -0.00005
   15    0.00000
   16    0.00000
   17   -0.00000
   18    0.00000
   19   -0.00023
   20   -0.00035
   21   -0.00026
   22   -0.00000
   23    0.00000
   24   -0.00000
   25   -0.25236
   26   -0.00507
   27   -0.00343
   28    0.00001
   29   -0.00000
   30   -0.00000
   31   -0.00000
   32    0.00003
   33    0.00000
   34    0.00199
   35    0.00197
   36    0.00201
   37    0.00000
   38    0.00000
   39    0.00000
   40    0.84272
   41    0.01619
   42    0.01399
   43    0.00000
   44   -0.00004
   45   -0.00000
   46   -0.00001
   47   -0.00029
   48    0.00000
   49   -0.00711
   50   -0.00708
   51   -0.00712
   52   -0.00000
   53    0.00000
   54    0.00000
   55   -0.11507
   56   -0.00248
   57   -0.00098
   58    0.00000
   59   -0.00000
   60   -0.00000
   61    0.00004
   62    0.00003
   63    0.00000
   64    0.00078
   65    0.00077
   66    0.00081
   67   -0.00000
   68   -0.00000
   69    0.00000
   70    0.44551
   71    0.00871
   72    0.00688
   73    0.00000
   74    0.00001
   75   -0.00000
   76   -0.00001
   77    0.00020
   78    0.00000
   79   -0.00364
   80   -0.00360
   81   -0.00365
   82    0.00000
   83    0.00000
   84   -0.00000
   85    0.01454
   86    0.00011
   87    0.00082
   88    0.00000
   89   -0.00000
   90   -0.00000
   91   -0.00001
   92    0.00003
   93   -0.00007
   94   -0.00020
   95   -0.00026
   96   -0.00023
   97    0.00000
   98   -0.00000
   99    0.00000
  100    0.01412
  101    0.00010
  102    0.00082
  103    0.00000
  104   -0.00000
  105    0.00000
  106   -0.00001
  107    0.00003
  108    0.00007
  109   -0.00020
  110   -0.00026
  111   -0.00022
  112    0.00000
  113    0.00000
  114   -0.00000
 Sym= Cs
 Ene=   -24.2686
 Spin= Alpha
 Occup= 1.0
    1    0.00017
    2    0.00004
    3    0.00084
    4    0.00004
    5    0.00001
    6    0.00000
    7    0.00036
    8    0.00010
    9    0.00000
   10   -0.00005
   11   -0.00001
   12   -0.00000
   13    0.00004
   14    0.00001
   15   -0.00001
   16   -0.00000
   17    0.00000
   18   -0.00000
   19    0.00056
   20    0.00050
   21    0.00047
   22   -0.00000
   23    0.00000
   24    0.00000
   25   -0.81316
   26   -0.01550
   27   -0.01393
   28    0.00004
   29    0.00000
   30    0.00000
   31    0.00035
   32   -0.00001
   33   -0.00000
   34    0.00690
   35    0.00695
   36    0.00694
   37   -0.00000
   38   -0.00000
   39   -0.00000
   40   -0.23283
   41   -0.00421
   42   -0.00477
   43    0.00000
   44    0.00002
   45    0.00000
   46   -0.00003
   47    0.00019
   48   -0.00000
   49    0.00216
   50    0.00212
   51    0.00211
   52   -0.00000
   53    0.00000
   54   -0.00000
   55   -0.49771
   56   -0.00956
   57   -0.00828
   58   -0.00001
   59    0.00000
   60    0.00000
   61   -0.00027
   62   -0.00001
   63   -0.00000
   64    0.00414
   65    0.00419
   66    0.00418
   67    0.00000
   68    0.00000
   69   -0.00000
   70   -0.14698
   71   -0.00259
   72   -0.00323
   73    0.00000
   74   -0.00001
   75    0.00000
   76   -0.00003
   77   -0.00017
   78   -0.00000
   79    0.00141
   80    0.00136
   81    0.00136
   82    0.00000
   83    0.00000
   84    0.00000
   85   -0.02397
   86   -0.00015
   87   -0.00147
   88    0.00000
   89    0.00000
   90    0.00001
   91   -0.00003
   92   -0.00001
   93    0.00014
   94    0.00042
   95    0.00039
   96    0.00039
   97    0.00000
   98   -0.00000
   99   -0.00000
  100   -0.02332
  101   -0.00014
  102   -0.00145
  103    0.00000
  104    0.00000
  105   -0.00001
  106   -0.00003
  107   -0.00001
  108   -0.00014
  109    0.00041
  110    0.00038
  111    0.00039
  112    0.00000
  113    0.00000
  114    0.00000
 Sym= Cs
 Ene=    -2.6400
 Spin= Alpha
 Occup= 1.0
    1   -0.99015
    2    0.07922
    3   -0.00732
    4   -0.00000
    5   -0.00000
    6    0.00000
    7   -0.00000
    8   -0.00000
    9   -0.00000
   10    0.00000
   11    0.00000
   12    0.00000
   13    0.01788
   14    0.01788
   15    0.01789
   16   -0.00000
   17   -0.00000
   18    0.00000
   19   -0.02944
   20   -0.02944
   21   -0.02944
   22    0.00000
   23   -0.00000
   24   -0.00000
   25    0.00073
   26   -0.00096
   27   -0.00134
   28    0.00148
   29   -0.00000
   30    0.00000
   31    0.00025
   32   -0.00000
   33    0.00000
   34   -0.00058
   35    0.00035
   36    0.00035
   37    0.00000
   38   -0.00000
   39    0.00000
   40    0.00073
   41   -0.00096
   42   -0.00134
   43   -0.00000
   44    0.00148
   45   -0.00000
   46   -0.00000
   47    0.00025
   48    0.00000
   49    0.00035
   50   -0.00058
   51    0.00035
   52    0.00000
   53    0.00000
   54    0.00000
   55    0.00073
   56   -0.00096
   57   -0.00134
   58   -0.00148
   59   -0.00000
   60   -0.00000
   61   -0.00025
   62    0.00000
   63    0.00000
   64   -0.00058
   65    0.00035
   66    0.00035
   67   -0.00000
   68   -0.00000
   69    0.00000
   70    0.00073
   71   -0.00096
   72   -0.00134
   73   -0.00000
   74   -0.00148
   75    0.00000
   76    0.00000
   77   -0.00025
   78    0.00000
   79    0.00035
   80   -0.00058
   81    0.00035
   82   -0.00000
   83    0.00000
   84    0.00000
   85    0.00074
   86   -0.00096
   87   -0.00134
   88   -0.00000
   89   -0.00000
   90    0.00148
   91   -0.00000
   92    0.00000
   93    0.00025
   94    0.00035
   95    0.00035
   96   -0.00058
   97   -0.00000
   98    0.00000
   99    0.00000
  100    0.00074
  101   -0.00096
  102   -0.00134
  103   -0.00000
  104   -0.00000
  105   -0.00148
  106   -0.00000
  107    0.00000
  108   -0.00025
  109    0.00035
  110    0.00035
  111   -0.00058
  112   -0.00000
  113   -0.00000
  114   -0.00000
 Sym= Cs
 Ene=    -1.5896
 Spin= Alpha
 Occup= 1.0
    1    0.00000
    2   -0.00000
    3    0.00000
    4    0.00849
    5   -0.00488
    6    0.99763
    7    0.00002
    8   -0.00001
    9    0.00180
   10    0.00000
   11   -0.00000
   12    0.00028
   13   -0.00000
   14   -0.00000
   15   -0.00000
   16   -0.00000
   17    0.00000
   18    0.00000
   19    0.00000
   20    0.00000
   21   -0.00000
   22   -0.00000
   23    0.00000
   24    0.00000
   25   -0.00004
   26    0.00013
   27   -0.00004
   28   -0.00009
   29   -0.00000
   30    0.00072
   31   -0.00001
   32   -0.00001
   33    0.00212
   34    0.00004
   35    0.00005
   36    0.00005
   37    0.00001
   38   -0.00130
   39    0.00000
   40    0.00002
   41   -0.00008
   42    0.00002
   43    0.00001
   44    0.00005
   45    0.00072
   46    0.00002
   47    0.00001
   48    0.00212
   49   -0.00003
   50   -0.00002
   51   -0.00003
   52   -0.00001
   53    0.00000
   54   -0.00130
   55    0.00004
   56   -0.00013
   57    0.00004
   58   -0.00009
   59   -0.00000
   60    0.00072
   61   -0.00001
   62   -0.00001
   63    0.00213
   64   -0.00004
   65   -0.00005
   66   -0.00005
   67   -0.00001
   68    0.00130
   69    0.00000
   70   -0.00002
   71    0.00008
   72   -0.00002
   73    0.00001
   74    0.00005
   75    0.00072
   76    0.00002
   77    0.00001
   78    0.00212
   79    0.00003
   80    0.00002
   81    0.00003
   82    0.00001
   83   -0.00000
   84    0.00130
   85   -0.00413
   86    0.01568
   87   -0.00446
   88    0.00001
   89   -0.00000
   90   -0.01075
   91    0.00002
   92   -0.00001
   93   -0.00119
   94    0.00535
   95    0.00535
   96    0.00489
   97    0.00000
   98   -0.00001
   99    0.00001
  100    0.00413
  101   -0.01568
  102    0.00447
  103    0.00001
  104   -0.00000
  105   -0.01075
  106    0.00002
  107   -0.00001
  108   -0.00119
  109   -0.00535
  110   -0.00535
  111   -0.00489
  112   -0.00000
  113    0.00001
  114   -0.00001
 Sym= Cs
 Ene=    -1.5896
 Spin= Alpha
 Occup= 1.0
    1   -0.00000
    2    0.00000
    3   -0.00000
    4   -0.85556
    5   -0.51318
    6    0.00477
    7   -0.00154
    8   -0.00092
    9    0.00001
   10   -0.00024
   11   -0.00015
   12    0.00000
   13    0.00000
   14    0.00000
   15    0.00000
   16   -0.00000
   17    0.00000
   18    0.00000
   19    0.00001
   20   -0.00000
   21   -0.00000
   22   -0.00000
   23   -0.00000
   24   -0.00000
   25    0.00354
   26   -0.01343
   27    0.00382
   28    0.00921
   29   -0.00037
   30    0.00000
   31    0.00103
   32   -0.00109
   33    0.00001
   34   -0.00419
   35   -0.00458
   36   -0.00458
   37    0.00067
   38   -0.00001
   39    0.00000
   40    0.00212
   41   -0.00806
   42    0.00230
   43   -0.00062
   44    0.00552
   45    0.00000
   46   -0.00182
   47    0.00061
   48    0.00001
   49   -0.00275
   50   -0.00251
   51   -0.00275
   52    0.00112
   53   -0.00000
   54   -0.00001
   55   -0.00354
   56    0.01344
   57   -0.00383
   58    0.00921
   59   -0.00037
   60    0.00000
   61    0.00102
   62   -0.00109
   63    0.00001
   64    0.00419
   65    0.00459
   66    0.00459
   67   -0.00067
   68    0.00001
   69   -0.00000
   70   -0.00212
   71    0.00806
   72   -0.00229
   73   -0.00062
   74    0.00552
   75    0.00000
   76   -0.00182
   77    0.00062
   78    0.00001
   79    0.00275
   80    0.00251
   81    0.00275
   82   -0.00112
   83    0.00000
   84    0.00001
   85   -0.00002
   86    0.00007
   87   -0.00002
   88   -0.00062
   89   -0.00037
   90   -0.00005
   91   -0.00182
   92   -0.00109
   93   -0.00001
   94    0.00003
   95    0.00003
   96    0.00002
   97   -0.00000
   98    0.00112
   99    0.00067
  100    0.00002
  101   -0.00008
  102    0.00002
  103   -0.00062
  104   -0.00037
  105   -0.00005
  106   -0.00182
  107   -0.00109
  108   -0.00001
  109   -0.00003
  110   -0.00003
  111   -0.00002
  112   -0.00000
  113   -0.00112
  114   -0.00067
 Sym= Cs
 Ene=    -1.5896
 Spin= Alpha
 Occup= 1.0
    1    0.00000
    2   -0.00000
    3    0.00000
    4    0.51313
    5   -0.85556
    6   -0.00855
    7    0.00092
    8   -0.00154
    9   -0.00002
   10    0.00015
   11   -0.00024
   12   -0.00000
   13   -0.00000
   14   -0.00000
   15   -0.00000
   16   -0.00000
   17   -0.00000
   18    0.00000
   19   -0.00000
   20   -0.00000
   21    0.00000
   22   -0.00000
   23    0.00000
   24   -0.00000
   25   -0.00212
   26    0.00806
   27   -0.00229
   28   -0.00552
   29   -0.00062
   30   -0.00001
   31   -0.00062
   32   -0.00182
   33   -0.00002
   34    0.00251
   35    0.00275
   36    0.00275
   37    0.00112
   38    0.00001
   39    0.00000
   40    0.00354
   41   -0.01344
   42    0.00383
   43    0.00037
   44    0.00921
   45   -0.00001
   46    0.00109
   47    0.00102
   48   -0.00002
   49   -0.00458
   50   -0.00419
   51   -0.00458
   52   -0.00067
   53    0.00000
   54    0.00001
   55    0.00212
   56   -0.00806
   57    0.00230
   58   -0.00553
   59   -0.00062
   60   -0.00001
   61   -0.00061
   62   -0.00182
   63   -0.00002
   64   -0.00251
   65   -0.00275
   66   -0.00275
   67   -0.00112
   68   -0.00001
   69   -0.00000
   70   -0.00354
   71    0.01344
   72   -0.00382
   73    0.00037
   74    0.00921
   75   -0.00001
   76    0.00109
   77    0.00103
   78   -0.00002
   79    0.00458
   80    0.00419
   81    0.00458
   82    0.00067
   83   -0.00000
   84   -0.00001
   85    0.00004
   86   -0.00013
   87    0.00004
   88    0.00037
   89   -0.00062
   90    0.00009
   91    0.00109
   92   -0.00182
   93    0.00001
   94   -0.00005
   95   -0.00005
   96   -0.00004
   97   -0.00000
   98   -0.00067
   99    0.00112
  100   -0.00004
  101    0.00013
  102   -0.00004
  103    0.00037
  104   -0.00062
  105    0.00009
  106    0.00109
  107   -0.00182
  108    0.00001
  109    0.00005
  110    0.00005
  111    0.00004
  112    0.00000
  113    0.00067
  114   -0.00112
 Sym= Cs
 Ene=    -0.7400
 Spin= Alpha
 Occup= 1.0
    1    0.02162
    2   -0.10856
    3   -0.03799
    4   -0.00002
    5   -0.00000
    6   -0.00000
    7    0.00000
    8    0.00000
    9    0.00000
   10    0.00000
   11    0.00000
   12    0.00000
   13   -0.00533
   14   -0.00531
   15   -0.00541
   16   -0.00000
   17    0.00000
   18   -0.00000
   19    0.03803
   20    0.03803
   21    0.03802
   22   -0.00000
   23   -0.00000
   24    0.00000
   25    0.09518
   26   -0.20289
   27   -0.22226
   28    0.00906
   29   -0.00000
   30    0.00000
   31    0.01149
   32   -0.00000
   33    0.00000
   34   -0.00558
   35   -0.00031
   36   -0.00031
   37    0.00000
   38   -0.00000
   39   -0.00000
   40    0.09517
   41   -0.20287
   42   -0.22223
   43    0.00000
   44    0.00906
   45    0.00000
   46   -0.00000
   47    0.01149
   48    0.00000
   49   -0.00031
   50   -0.00558
   51   -0.00032
   52   -0.00000
   53    0.00000
   54   -0.00000
   55    0.09522
   56   -0.20299
   57   -0.22236
   58   -0.00906
   59   -0.00000
   60    0.00000
   61   -0.01150
   62   -0.00000
   63    0.00000
   64   -0.00558
   65   -0.00031
   66   -0.00032
   67   -0.00000
   68   -0.00000
   69   -0.00000
   70    0.09517
   71   -0.20287
   72   -0.22224
   73    0.00000
   74   -0.00906
   75    0.00000
   76    0.00000
   77   -0.01149
   78    0.00000
   79   -0.00031
   80   -0.00558
   81   -0.00032
   82    0.00000
   83    0.00000
   84    0.00000
   85    0.09539
   86   -0.20334
   87   -0.22276
   88   -0.00000
   89   -0.00000
   90    0.00908
   91   -0.00000
   92   -0.00000
   93    0.01151
   94   -0.00031
   95   -0.00031
   96   -0.00559
   97   -0.00000
   98    0.00000
   99    0.00000
  100    0.09540
  101   -0.20336
  102   -0.22279
  103    0.00000
  104   -0.00000
  105   -0.00908
  106   -0.00000
  107   -0.00000
  108   -0.01151
  109   -0.00031
  110   -0.00031
  111   -0.00559
  112   -0.00000
  113    0.00000
  114   -0.00000
 Sym= Cs
 Ene=    -0.7259
 Spin= Alpha
 Occup= 1.0
    1    0.00002
    2   -0.00009
    3   -0.00004
    4   -0.00010
    5    0.00000
    6    0.00007
    7    0.00004
    8   -0.00000
    9   -0.00002
   10    0.00000
   11   -0.00000
   12   -0.00000
   13   -0.02654
   14   -0.02147
   15    0.04799
   16    0.00000
   17   -0.00000
   18    0.00000
   19   -0.00946
   20   -0.00764
   21    0.01719
   22   -0.00000
   23   -0.00000
   24    0.00000
   25    0.07573
   26   -0.16162
   27   -0.17823
   28    0.00597
   29   -0.00000
   30   -0.00000
   31    0.00266
   32   -0.00000
   33   -0.00000
   34   -0.00399
   35   -0.00048
   36    0.00056
   37    0.00000
   38    0.00000
   39    0.00000
   40    0.06144
   41   -0.13112
   42   -0.14459
   43    0.00000
   44    0.00484
   45   -0.00000
   46    0.00000
   47    0.00216
   48   -0.00000
   49   -0.00053
   50   -0.00323
   51    0.00059
   52   -0.00000
   53   -0.00000
   54    0.00000
   55    0.07611
   56   -0.16243
   57   -0.17912
   58   -0.00599
   59   -0.00000
   60   -0.00000
   61   -0.00269
   62   -0.00000
   63   -0.00000
   64   -0.00401
   65   -0.00048
   66    0.00056
   67   -0.00000
   68   -0.00000
   69    0.00000
   70    0.06143
   71   -0.13110
   72   -0.14457
   73    0.00000
   74   -0.00484
   75   -0.00000
   76    0.00000
   77   -0.00216
   78   -0.00000
   79   -0.00053
   80   -0.00323
   81    0.00059
   82    0.00000
   83   -0.00000
   84   -0.00000
   85   -0.13693
   86    0.29223
   87    0.32227
   88    0.00000
   89    0.00000
   90   -0.01079
   91    0.00000
   92    0.00000
   93   -0.00480
   94   -0.00011
   95   -0.00004
   96    0.00721
   97    0.00000
   98   -0.00000
   99   -0.00000
  100   -0.13719
  101    0.29280
  102    0.32289
  103    0.00000
  104    0.00000
  105    0.01081
  106    0.00000
  107    0.00000
  108    0.00482
  109   -0.00011
  110   -0.00004
  111    0.00723
  112    0.00000
  113    0.00000
  114    0.00000
 Sym= Cs
 Ene=    -0.7258
 Spin= Alpha
 Occup= 1.0
    1   -0.00000
    2    0.00002
    3    0.00001
    4   -0.00017
    5   -0.00001
    6   -0.00000
    7    0.00006
    8    0.00000
    9    0.00000
   10    0.00001
   11    0.00000
   12    0.00000
   13   -0.04009
   14    0.04302
   15   -0.00292
   16   -0.00000
   17   -0.00000
   18   -0.00000
   19   -0.01434
   20    0.01538
   21   -0.00105
   22   -0.00000
   23   -0.00000
   24   -0.00000
   25    0.11427
   26   -0.24387
   27   -0.26895
   28    0.00901
   29    0.00000
   30    0.00000